
                                 *****************
                                 * O   R   C   A *
                                 *****************

                                            #,                                       
                                            ###                                      
                                            ####                                     
                                            #####                                    
                                            ######                                   
                                           ########,                                 
                                     ,,################,,,,,                         
                               ,,#################################,,                 
                          ,,##########################################,,             
                       ,#########################################, ''#####,          
                    ,#############################################,,   '####,        
                  ,##################################################,,,,####,       
                ,###########''''           ''''###############################       
              ,#####''   ,,,,##########,,,,          '''####'''          '####       
            ,##' ,,,,###########################,,,                        '##       
           ' ,,###''''                  '''############,,,                           
         ,,##''                                '''############,,,,        ,,,,,,###''
      ,#''                                            '''#######################'''  
     '                                                          ''''####''''         
             ,#######,   #######,   ,#######,      ##                                
            ,#'     '#,  ##    ##  ,#'     '#,    #''#        ######   ,####,        
            ##       ##  ##   ,#'  ##            #'  '#       #        #'  '#        
            ##       ##  #######   ##           ,######,      #####,   #    #        
            '#,     ,#'  ##    ##  '#,     ,#' ,#      #,          ##  #,  ,#        
             '#######'   ##     ##  '#######'  #'      '#     #####'   '####'        



                  #######################################################
                  #                        -***-                        #
                  #          Department of theory and spectroscopy      #
                  #    Directorship and core code : Frank Neese         #
                  #        Max Planck Institute fuer Kohlenforschung    #
                  #                Kaiser Wilhelm Platz 1               #
                  #                 D-45470 Muelheim/Ruhr               #
                  #                      Germany                        #
                  #                                                     #
                  #                  All rights reserved                #
                  #                        -***-                        #
                  #######################################################


                         Program Version 5.0.3 -  RELEASE  -


 With contributions from (in alphabetic order):
   Daniel Aravena         : Magnetic Suceptibility
   Michael Atanasov       : Ab Initio Ligand Field Theory (pilot matlab implementation)
   Alexander A. Auer      : GIAO ZORA, VPT2 properties, NMR spectrum
   Ute Becker             : Parallelization
   Giovanni Bistoni       : ED, misc. LED, open-shell LED, HFLD
   Martin Brehm           : Molecular dynamics
   Dmytro Bykov           : SCF Hessian
   Vijay G. Chilkuri      : MRCI spin determinant printing, contributions to CSF-ICE

With many thanks to all other contributors!

Program compiled: Jul 19 2022 / 12:00:00
Running on cores: 4

--------------
ORCA GEOMETRY:
--------------

Number of atoms                 ...     9
Periodicity                     ... None
Geometry read from              ... input file

--------------
INPUT SECTION:
--------------

%pal nprocs 4 end
%maxcore 2000

*xyz 0 1
  C      -0.748340000000      0.287560000000     -0.000000000000
  C       0.748340000000     -0.287560000000      0.000000000000
  O       1.630890000000      0.858180000000      0.000000000000
  H      -0.887900000000      0.925720000000      0.883040000000
  H      -0.887900000000      0.925720000000     -0.883040000000
  H      -1.458460000000     -0.546230000000      0.000000000000
  H       0.888090000000     -0.925790000000      0.883030000000
  H       0.888090000000     -0.925790000000     -0.883030000000
  H       2.540510000000      0.559470000000      0.000000000000
*

---------------------------------
MAIN ITERATION OF SCF CALCULATION
---------------------------------

SCF ITERATIONS

ITER       Energy         Delta-E        Max-DP      RMS-DP      [F,P]     Damp
               ***  Starting incremental Fock matrix formation  ***
  0   -154.8234567890   0.000000000000 0.04234567  0.00456789  0.1234567 0.7000
  1   -154.9123456789  -0.088888899900 0.03456789  0.00234567  0.0876543 0.7000
  2   -154.9345678901  -0.022222211200 0.01234567  0.00123456  0.0456789 0.0000
               ***  Restarting incremental Fock matrix formation  ***
  3   -154.9456789012  -0.011111011100 0.00456789  0.00045678  0.0123456 0.0000
  4   -154.9478901234  -0.002211222200 0.00123456  0.00012345  0.0034567 0.0000
  5   -154.9481234567  -0.000233333300 0.00034567  0.00003456  0.0001234 0.0000
                                ***SCF CONVERGED***

-------------------------   ----------------
FINAL SINGLE POINT ENERGY      -154.948123457
-------------------------   ----------------


---------------------------------
CARTESIAN COORDINATES (ANGSTROEM)
---------------------------------
  C     -0.748340    0.287560   -0.000000
  C      0.748340   -0.287560    0.000000
  O      1.630890    0.858180    0.000000
  H     -0.887900    0.925720    0.883040
  H     -0.887900    0.925720   -0.883040
  H     -1.458460   -0.546230    0.000000
  H      0.888090   -0.925790    0.883030
  H      0.888090   -0.925790   -0.883030
  H      2.540510    0.559470    0.000000


------------
SCF GRADIENT
------------

Gradient of the Kohn-Sham DFT energy:
  1   C :    0.0001234  -0.0002345   0.0000123
  2   C :   -0.0001234   0.0002345  -0.0000123
  3   O :    0.0000345  -0.0000456   0.0000045
  4   H :   -0.0000123   0.0000234  -0.0000012
  5   H :   -0.0000123   0.0000234   0.0000012
  6   H :    0.0000234  -0.0000345   0.0000023
  7   H :    0.0000123  -0.0000234   0.0000012
  8   H :    0.0000123  -0.0000234  -0.0000012
  9   H :   -0.0000345   0.0000456  -0.0000045

                            ****ORCA TERMINATED NORMALLY****
TOTAL RUN TIME: 0 days 0 hours 1 minutes 23 seconds 456 msec
